# vtk DataFile Version 2.0
level 0 sphere data
ASCII
DATASET STRUCTURED_POINTS
DIMENSIONS 17 33 33
ORIGIN -0.0 -0.5 -0.5
SPACING 0.03125 0.03125 0.03125
POINT_DATA 18513
SCALARS volume_data float 1 
LOOKUP_TABLE default 
0.00464056962014 0.00451084828233 0.00438257511228 0.00425745311022 0.00413658897018 0.00402062624917 0.00390986505498 0.00380436161177 0.00370400683419 0.00360858594866 0.00351782231006 0.00343140868381 0.00334902892292 0.00327037246848 0.00319514359443 0.00312306687094 0.003053889955 
0.00480469089499 0.00465837957423 0.00451527275654 0.00437707498294 0.00424479195461 0.00411891194131 0.00399955832544 0.00388660971262 0.0037797901879 0.00367873470831 0.00358303499619 0.0034922707379 0.00340603001813 0.00332392203957 0.00324558441598 0.00317068671758 0.00309893148231 
0.00496583769999 0.00480217244322 0.00464381315453 0.00449238169121 0.00434870697565 0.00421305999455 0.00408533983872 0.00396521272363 0.00385221151186 0.00374580445867 0.00364544109509 0.0035505816781 0.00346071511589 0.00337536897359 0.00329411414165 0.00321656598549 0.00314238324216 
0.00511979403925 0.0049386861232 0.00476525419362 0.0046009455232 0.00444633843645 0.0043014320599 0.00416586340997 0.00403906173378 0.00392035380744 0.00380903313129 0.00370440358201 0.00360580550264 0.00351262999132 0.00342432542508 0.003340398992 0.00326041511126 0.00318399200217 
0.00526160382405 0.00506389512663 0.00487634812303 0.00470015450814 0.004535586299 0.00438233630109 0.00423976083589 0.00410704443597 0.00398330701547 0.00386767070823 0.00375929938995 0.00365742018451 0.00356133336199 0.00347041493878 0.00338411483174 0.00330195243056 0.00322351079526 
0.00538587372096 0.00517354437005 0.00497374828326 0.0047873755429 0.0046143725323 0.0044541242833 0.00430571560636 0.00416810098183 0.0040402102622 0.00392101116217 0.0038095435711 0.00370493596861 0.00360641076376 0.00351328298967 0.00342495519033 0.00334091029383 0.00326070359416 
0.00548728070916 0.00526353391728 0.00505429592695 0.00486016597418 0.00468079628737 0.00451530451179 0.00436254598642 0.00422128488272 0.00409029662432 0.0039684254702 0.00385461373055 0.00374791352001 0.00364748807767 0.00355260709956 0.00346263885388 0.00337704078417 0.00329534963557 
0.00556123548668 0.00533039038604 0.00511535290462 0.00491650785348 0.00473329901963 0.00456465921419 0.00440928800714 0.00426582231768 0.00413293576373 0.00400939244372 0.00389407244645 0.00378598031532 0.00368424357373 0.00358810572914 0.00349691646219 0.00341012063766 0.00332724711261 
0.00560457080553 0.00537173528146 0.00515511991773 0.0049550248034 0.00477081307299 0.00460134686264 0.00444526676531 0.00430116212386 0.00416766925752 0.00404352388634 0.00392758531031 0.00381884366332 0.00371641736639 0.00361954518652 0.00352757558961 0.00343995500866 0.00335621599202 
0.00561606893132 0.00538663404409 0.00517286797833 0.00497513638893 0.004792865466 0.00462497259487 0.00447014466483 0.00432700915581 0.00419423387163 0.00407058096461 0.00395493252952 0.00384629898707 0.00374381736951 0.00364674394364 0.00355444390503 0.00346637981366 0.00338209978337 
0.00559666015008 0.00537572559487 0.00516902323057 0.00497711402643 0.00479961505502 0.00463561314024 0.00448393828206 0.0043433357882 0.00421256946148 0.00409047966898 0.00397601272605 0.00386823248715 0.00376632118537 0.00366957400147 0.00357739018787 0.00348926252027 0.00340476618611 
0.00554922422821 0.00534109267865 0.00514508191252 0.0049620247426 0.004791814927 0.004633791352 0.00448700088387 0.00435036975034 0.00422281039516 0.00410328469775 0.00399083853754 0.00388461796467 0.00378387381584 0.00368795926095 0.00359632320003 0.00350850140712 0.00342410665489 
0.00547806320002 0.00528591296951 0.00510337894187 0.0049315767373 0.00477070844258 0.00462040552501 0.00447997385595 0.0043485603942 0.00422526189454 0.00410919271964 0.00399952469771 0.00389550830004 0.00379648157086 0.00370187119219 0.00361118864733 0.00352402348488 0.0034400350401 
0.00538821378423 0.00521399138311 0.00504677020616 0.00488790296298 0.00473788100913 0.00459662715599 0.00446371562891 0.00433852889491 0.00422036488553 0.00410850741068 0.00400227022956 0.00390102272713 0.00380420298795 0.00371132239578 0.00362196467309 0.00353578141426 0.00345248556232 
0.0052847853758 0.00512928997805 0.00497830110746 0.00483332803201 0.00469509606159 0.00456378521554 0.00443921970504 0.00432100993774 0.00420865435089 0.00410160962011 0.00399933704451 0.0039013314978 0.00380713789181 0.00371635886904 0.00362865647812 0.00354374986169 0.00346141045113 
0.00517245460222 0.00503554528831 0.00490092179088 0.00477015866453 0.00464414190226 0.00452325461227 0.0044075335699 0.00429679280469 0.00419071655023 0.00408892634258 0.00399102749821 0.00389663972876 0.00380541586825 0.00371705189446 0.00363129073446 0.00354792178231 0.00346677761027 
0.00505516531841 0.00493601608548 0.0048172833504 0.00470052354337 0.00458670827583 0.00447636236145 0.00436968806323 0.00426666861728 0.00416714987575 0.00407090187231 0.00397766330448 0.00388717214858 0.00379918538941 0.00371349044546 0.00362991044381 0.00354830510514 0.00346856865532 
0.00493601608548 0.00483336141274 0.00472962232 0.00462627193801 0.00452430160354 0.00442431901825 0.00432664323474 0.0042313883732 0.00413853283976 0.00404797374186 0.0039595677303 0.00387316015969 0.0037886046271 0.00370577486764 0.00362457079233 0.0035449202195 0.00346677761027 
0.0048172833504 0.00472962232 0.00463972163095 0.00454892726656 0.00445819898508 0.00436817716004 0.00427925296746 0.00419163399815 0.00410540112638 0.00402055502798 0.00393705232017 0.00385483217403 0.00377383467612 0.00369401236836 0.00361533638826 0.0035377985364 0.00346141045113 
0.00470052354337 0.00462627193801 0.00454892726656 0.00446968416117 0.00438943518027 0.00430881436563 0.00422824756055 0.00414800246992 0.00406823413529 0.00398902356102 0.00391040866546 0.00383240766221 0.00375503553505 0.00367831457319 0.00360228006244 0.00352698224105 0.00345248556232 
0.00458670827583 0.00452430160354 0.00445819898508 0.00438943518027 0.00431881404978 0.0042469356576 0.00417423142145 0.0041010014776 0.00402745023772 0.00395371767221 0.00387990506422 0.00380609485707 0.00373236481794 0.0036587971242 0.00358548319535 0.00351252518469 0.0034400350401 
0.00447636236145 0.00442431901825 0.00436817716004 0.00430881436563 0.0042469356576 0.00418308953533 0.00411769203079 0.0040510541437 0.00398340915727 0.00391493745055 0.00384578738759 0.00377609163526 0.00370597884436 0.0036355810404 0.0035650373348 0.00349449470792 0.00342410665489 
0.00436968806323 0.00432664323474 0.00427925296746 0.00422824756055 0.00417423142145 0.00411769203079 0.00405901619409 0.00399850998764 0.00393641948137 0.00387295008703 0.00380828311914 0.00374258880489 0.00367603551134 0.00360879536375 0.00354104671125 0.00347297406309 0.00340476618611 
0.00426666861728 0.0042313883732 0.00419163399815 0.00414800246992 0.0041010014776 0.0040510541437 0.00399850998764 0.00394365939676 0.00388674923659 0.00382799774015 0.00376760736868 0.00370577486764 0.00364269820953 0.00357858049461 0.00351363116022 0.0034480650259 0.00338209978337 
0.00416714987575 0.00413853283976 0.00410540112638 0.00406823413529 0.00402745023772 0.00398340915727 0.00393641948137 0.00388674923659 0.0038346376337 0.00378030641716 0.00372396966296 0.00366584129699 0.00360614000958 0.0035450915853 0.00348292893158 0.00341989026387 0.00335621599202 
0.00407090187231 0.00404797374186 0.00402055502798 0.00398902356102 0.00395371767221 0.00391493745055 0.00387295008703 0.00382799774015 0.00378030641716 0.00373009457514 0.0036775804495 0.00362298746231 0.00356654740646 0.00350850140712 0.00344909890396 0.00338859506315 0.00332724711261 
0.00397766330448 0.0039595677303 0.00393705232017 0.00391040866546 0.00387990506422 0.00384578738759 0.00380828311914 0.00376760736868 0.00372396966296 0.0036775804495 0.00362865647812 0.00357742450405 0.00352412304839 0.00346900221961 0.00341232181816 0.00335434809765 0.00329534963557 
0.00388717214858 0.00387316015969 0.00385483217403 0.00383240766221 0.00380609485707 0.00377609163526 0.00374258880489 0.00370577486764 0.00366584129699 0.00362298746231 0.00357742450405 0.00352937769472 0.0034790870679 0.00342680633228 0.00337280028084 0.00331734104235 0.00326070359416 
0.00379918538941 0.0037886046271 0.00377383467612 0.00375503553505 0.00373236481794 0.00370597884436 0.00367603551134 0.00364269820953 0.00360614000958 0.00356654740646 0.00352412304839 0.0034790870679 0.00343167684426 0.00338214523006 0.0033307574458 0.00327778696727 0.00322351079526 
0.00371349044546 0.00370577486764 0.00369401236836 0.00367831457319 0.0036587971242 0.0036355810404 0.00360879536375 0.00357858049461 0.0035450915853 0.00350850140712 0.00346900221961 0.00342680633228 0.00338214523006 0.00333526731094 0.0032864344339 0.00323591758199 0.00318399200217 
0.00362991044381 0.00362457079233 0.00361533638826 0.00360228006244 0.00358548319535 0.0035650373348 0.00354104671125 0.00351363116022 0.00348292893158 0.00344909890396 0.00341232181816 0.00337280028084 0.0033307574458 0.0032864344339 0.00324008668307 0.0031919795134 0.00314238324216 
0.00354830510514 0.0035449202195 0.0035377985364 0.00352698224105 0.00351252518469 0.00349449470792 0.00347297406309 0.0034480650259 0.00341989026387 0.00338859506315 0.00335434809765 0.00331734104235 0.00327778696727 0.00323591758199 0.0031919795134 0.00314622988168 0.00309893148231 
0.00346856865532 0.00346677761027 0.00346141045113 0.00345248556232 0.0034400350401 0.00342410665489 0.00340476618611 0.00338209978337 0.00335621599202 0.00332724711261 0.00329534963557 0.00326070359416 0.00322351079526 0.00318399200217 0.00314238324216 0.00309893148231 0.003053889955 
0.00480469089499 0.00465837957423 0.00451527275654 0.00437707498294 0.00424479195461 0.00411891194131 0.00399955832544 0.00388660971262 0.0037797901879 0.00367873470831 0.00358303499619 0.0034922707379 0.00340603001813 0.00332392203957 0.00324558441598 0.00317068671758 0.00309893148231 
0.00498917380565 0.00482247565963 0.00466147562543 0.00450777323106 0.00436216062905 0.00422486688657 0.00409574951634 0.0039744363731 0.0038604264082 0.00375315869394 0.00365205808058 0.00355656418778 0.00346614879413 0.00338032531253 0.00329865297308 0.00322073754729 0.00314622988168 
0.00517199690819 0.00498360710844 0.0048039480406 0.00463437086934 0.00447533311039 0.00432671028674 0.00418802446531 0.00405860352179 0.00393768765255 0.0038244978752 0.00371827814407 0.00361831964842 0.003523973352 0.00343465494302 0.00334984501204 0.0032690863366 0.0031919795134 
0.005348215697 0.00513764712125 0.00493928994635 0.00475408928619 0.0045820483324 0.00442260451595 0.00427488803469 0.00413789110422 0.00401057398478 0.00389192820351 0.00378101171994 0.00367696618267 0.00357902304469 0.00348650295494 0.00339881126484 0.00331543145078 0.00323591758199 
0.00551179441875 0.00527976372415 0.00506366024669 0.00486388386758 0.00467989213608 0.00451062986853 0.00435480646456 0.00421106613745 0.00407808698665 0.00395463460457 0.00383958752556 0.00373194574778 0.00363082943047 0.00353547217235 0.0034452115594 0.00335947859567 0.00327778696727 
0.00565594535229 0.00540471663396 0.00517302070677 0.00496063678581 0.00476644602954 0.00458889765749 0.00442629261095 0.00427694664813 0.00413927761628 0.00401184678312 0.00389337326126 0.00378273327237 0.00367895133066 0.00358118752536 0.00348872331765 0.00340094721234 0.00331734104235 
0.00577378181702 0.00550734779204 0.00526349664846 0.00504141891725 0.00483947617835 0.00465568630115 0.00448800401098 0.00433447251484 0.00419329756159 0.0040628765923 0.00394180290859 0.00382885666972 0.00372298954954 0.00362330690755 0.00352904958432 0.00343957642877 0.00335434809765 
0.00585923936017 0.00558321711698 0.00533181331811 0.00510378927535 0.00489713954547 0.00470958401714 0.0045388423234 0.00438277526722 0.00423944858546 0.00410715315456 0.0039844018798 0.00386991494307 0.00376259996825 0.00366153068302 0.00356592595469 0.00347513012674 0.00338859506315 
0.00590807998245 0.00562925838719 0.00537572559487 0.00514607849581 0.00493817263633 0.00474961578788 0.00457803964046 0.00442123736124 0.00427722361795 0.00414425158798 0.00402080724511 0.0039055925153 0.00379750374852 0.00369560898517 0.00359912581879 0.00350740072968 0.00341989026387 
0.00591868593199 0.00564427989964 0.0053943363151 0.00516759349313 0.0049620247426 0.00477533123709 0.00460521716731 0.00444953180961 0.00430633378861 0.00417391159954 0.00405078060783 0.00393566819253 0.00382749360138 0.00372534612043 0.00362846347317 0.00353621142161 0.0034480650259 
0.0058923628286 0.00562915228349 0.00538821378423 0.00516869188165 0.00496890567247 0.00478683560504 0.00462040552501 0.00446763558756 0.00432671731574 0.00419604338486 0.00407421201131 0.00396001773992 0.00385243547786 0.00375060167847 0.00365379486026 0.00356141666044 0.00347297406309 
0.00583303578274 0.00558661982275 0.00535927324439 0.00515070635874 0.00495973665382 0.00478475725761 0.00462402281736 0.00447581452612 0.00433852889491 0.00421072003687 0.00409111442238 0.0039786098258 0.0038722655693 0.0037712883178 0.00367501595399 0.00358290103346 0.00349449470792 
0.00574645524744 0.00552079929742 0.00531045788173 0.00511573920663 0.00493601608548 0.00477015866453 0.004616814699 0.00447458236316 0.00434211132793 0.00421815764168 0.00410160962011 0.00399149594046 0.00388698307751 0.00378736658752 0.00369205908195 0.00360057669318 0.00351252518469 
0.00563919314655 0.00543652427222 0.00524530911805 0.00506637864723 0.00489963048871 0.00474440900984 0.00459976754867 0.00446464089697 0.00433795384178 0.00421868598545 0.00410590746275 0.00399879565724 0.00389663972876 0.00379883749721 0.00370488771679 0.0036143797806 0.00352698224105 
0.00551772292636 0.00533871041086 0.00516753116687 0.00500540021012 0.00485264906292 0.0047090421072 0.00457400957304 0.00444681069171 0.00432664323474 0.00421271393885 0.004104281284 0.00400067913703 0.00390132737313 0.00380573380072 0.00371349044546 0.00362426636365 0.0035377985364 
0.00538776874913 0.00523186704636 0.00508063236956 0.00493550678985 0.00479713662481 0.00466562220632 0.00454071460787 0.0044219620841 0.00430881436563 0.00420069393458 0.0040970424555 0.00399734899724 0.00390116517367 0.00380811107654 0.00371787490536 0.0036302084727 0.0035449202195 
0.00525396939887 0.00511980352673 0.00498768453864 0.00485913913829 0.0047350081637 0.00461563423844 0.00450102024458 0.00439095462259 0.00428510567529 0.00418308953533 0.00408451694288 0.00398902356102 0.00389628783397 0.00380603965382 0.00371806245185 0.00363219079241 0.00354830510514 
0.00511980352673 0.00500551540046 0.00489120249536 0.00477836513876 0.00466793443638 0.00456040696061 0.00445596718264 0.00435459029705 0.00425612378969 0.0041603491067 0.00406702608102 0.00397592312211 0.00388683606291 0.00379959826045 0.00371408419594 0.0036302084727 0.00354792178231 
0.00498768453864 0.00489120249536 0.00479312122229 0.00469483896915 0.00459729653942 0.00450107000007 0.00440646192778 0.00431358286624 0.00422241930041 0.00413288734539 0.00404487296184 0.00395826030079 0.00387295008703 0.00378886999156 0.00370597884436 0.00362426636365 0.00354374986169 
0.00485913913829 0.00477836513876 0.00469483896915 0.00460981257988 0.00452418035792 0.00443854053268 0.00435326118265 0.0042685429484 0.0041844739856 0.00410107514107 0.00401833493796 0.00393623493333 0.0038547665624 0.00377394085716 0.00369379251754 0.0036143797806 0.00353578141426 
0.0047350081637 0.00466793443638 0.00459729653942 0.00452418035792 0.00444939910868 0.00437353260827 0.00429697393399 0.00421997667195 0.00414269830157 0.0040652371713 0.00398766193753 0.00391003333131 0.00383241877941 0.00375490081703 0.0036775804495 0.00360057669318 0.00352402348488 
0.00461563423844 0.00456040696061 0.00450107000007 0.00443854053268 0.00437353260827 0.00430658150955 0.00423807624738 0.00416829465422 0.00409743705019 0.00402565585132 0.00395307965379 0.00387983124262 0.00380603965382 0.00373184689453 0.00365741022303 0.00358290103346 0.00350850140712 
0.00450102024458 0.00445596718264 0.00440646192778 0.00435326118265 0.00429697393399 0.00423807624738 0.00417693379433 0.00411382776022 0.00404898069122 0.00398257981202 0.0039147962618 0.00384579948998 0.00377576669964 0.00370488771679 0.00363336599627 0.00356141666044 0.00348926252027 
0.00439095462259 0.00435459029705 0.00431358286624 0.0042685429484 0.00421997667195 0.00416829465422 0.00411382776022 0.00405684628798 0.00399757973182 0.00393623493333 0.00387301112966 0.00380811107654 0.00374174800996 0.00367414868319 0.00360555305667 0.00353621142161 0.00346637981366 
0.00428510567529 0.00425612378969 0.00422241930041 0.0041844739856 0.00414269830157 0.00409743705019 0.00404898069122 0.00399757973182 0.00394345987744 0.00388683606291 0.00382792401244 0.00376694852982 0.00370414823842 0.00363977692961 0.00357410200819 0.00350740072968 0.00343995500866 
0.00418308953533 0.0041603491067 0.00413288734539 0.00410107514107 0.0040652371713 0.00402565585132 0.00398257981202 0.00393623493333 0.00388683606291 0.00383459783499 0.00377974340673 0.00372251038505 0.00366315366876 0.00360194532896 0.00353917195935 0.00347513012674 0.00341012063766 
0.00408451694288 0.00406702608102 0.00404487296184 0.00401833493796 0.00398766193753 0.00395307965379 0.0039147962618 0.00387301112966 0.00382792401244 0.00377974340673 0.00372869305338 0.00367501595399 0.00361897565816 0.00356085493436 0.00350095221969 0.00343957642877 0.00337704078417 
0.00398902356102 0.00397592312211 0.00395826030079 0.00393623493333 0.00391003333131 0.00387983124262 0.00384579948998 0.00380811107654 0.00376694852982 0.00372251038505 0.00367501595399 0.00362470784102 0.00357185200723 0.00351673549855 0.0034596622082 0.00340094721234 0.00334091029383 
0.00389628783397 0.00388683606291 0.00387295008703 0.0038547665624 0.00383241877941 0.00380603965382 0.00377576669964 0.00374174800996 0.00370414823842 0.00366315366876 0.00361897565816 0.00357185200723 0.00352204610282 0.0034698439577 0.00341554949732 0.00335947859567 0.00330195243056 
0.00380603965382 0.00379959826045 0.00378886999156 0.00377394085716 0.00375490081703 0.00373184689453 0.00370488771679 0.00367414868319 0.00363977692961 0.00360194532896 0.00356085493436 0.00351673549855 0.0034698439577 0.00342046101117 0.00336888612861 0.00331543145078 0.00326041511126 
0.00371806245185 0.00371408419594 0.00370597884436 0.00369379251754 0.0036775804495 0.00365741022303 0.00363336599627 0.00360555305667 0.00357410200819 0.00353917195935 0.00350095221969 0.0034596622082 0.00341554949732 0.00336888612861 0.00331996351162 0.0032690863366 0.00321656598549 
0.00363219079241 0.0036302084727 0.00362426636365 0.0036143797806 0.00360057669318 0.00358290103346 0.00356141666044 0.00353621142161 0.00350740072968 0.00347513012674 0.00343957642877 0.00340094721234 0.00335947859567 0.00331543145078 0.0032690863366 0.00322073754729 0.00317068671758 
0.00354830510514 0.00354792178231 0.00354374986169 0.00353578141426 0.00352402348488 0.00350850140712 0.00348926252027 0.00346637981366 0.00343995500866 0.00341012063766 0.00337704078417 0.00334091029383 0.00330195243056 0.00326041511126 0.00321656598549 0.00317068671758 0.00312306687094 
0.00496583769999 0.00480217244322 0.00464381315453 0.00449238169121 0.00434870697565 0.00421305999455 0.00408533983872 0.00396521272363 0.00385221151186 0.00374580445867 0.00364544109509 0.0035505816781 0.00346071511589 0.00337536897359 0.00329411414165 0.00321656598549 0.00314238324216 
0.00517199690819 0.00498360710844 0.0048039480406 0.00463437086934 0.00447533311039 0.00432671028674 0.00418802446531 0.00405860352179 0.00393768765255 0.0038244978752 0.00371827814407 0.00361831964842 0.003523973352 0.00343465494302 0.00334984501204 0.0032690863366 0.0031919795134 
0.00537829998805 0.00516314342484 0.00496095768424 0.00477258771171 0.00459793231747 0.00443633236288 0.00428683409958 0.00414835933925 0.00401981054223 0.00390013238016 0.00378834510208 0.0036835601183 0.00358498466932 0.00349192001507 0.00340375596405 0.00331996351162 0.00324008668307 
0.00557905944142 0.00533604861149 0.00511096837775 0.00490389315439 0.00471397374556 0.00453988868678 0.00438012631695 0.00423315192811 0.00409750086645 0.00397182569283 0.00385491574924 0.00374570070671 0.0036432452225 0.00354673900907 0.00345548486273 0.00336888612861 0.0032864344339 
0.00576704011616 0.00549660539289 0.00524949796677 0.00502478330037 0.00482071576541 0.00463522628606 0.00446620094165 0.00431162922219 0.0041696746578 0.00403870099885 0.00391727401081 0.00380415066913 0.00369826250282 0.00359869684667 0.00350467802488 0.00341554949732 0.0033307574458 
0.00593380861032 0.00563844240871 0.00537173528146 0.00513161216897 0.00491537765528 0.0047202065265 0.00454339706758 0.0043824874513 0.00423529675693 0.00409992655222 0.00397474329877 0.00385835264963 0.00374957147307 0.00364740052385 0.00355099910215 0.0034596622082 0.00337280028084 
0.00607054595154 0.00575514385237 0.00547298398922 0.00522090964366 0.00499536563784 0.004792865466 0.00461020695425 0.00444455229177 0.00429343886512 0.00415475738069 0.0040267165927 0.00390780445115 0.00379675036515 0.00369249059582 0.0035941374399 0.00350095221969 0.00341232181816 
0.00616930122886 0.00584109040618 0.00554922422821 0.00528975722024 0.00505852566477 0.00485158523007 0.00466539322219 0.00449685971797 0.0043433357882 0.00420257470297 0.00407268423804 0.00395207873763 0.00383943469503 0.00373365117075 0.00363381521393 0.00353917195935 0.00344909890396 
0.00622443589079 0.0058923628286 0.00559768272025 0.00533615199253 0.00510337894187 0.00489524853125 0.00470809158592 0.00453872514471 0.0043844324727 0.00424291821377 0.00411225626216 0.00399083853754 0.00387732806854 0.00377061745398 0.00366979270114 0.00357410200819 0.00348292893158 
0.00623380517901 0.00590744958454 0.00561726330712 0.00535927324439 0.00512928997805 0.00492334641683 0.00473788100913 0.00456978971312 0.00441641487087 0.00427550682815 0.00414517638591 0.00402384672783 0.0039102085974 0.00380318007791 0.00370187119219 0.00360555305667 0.00351363116022 
0.00619921670264 0.00588751546001 0.0056087071797 0.00535957983992 0.00513652682652 0.00493601608548 0.00475480770144 0.00459003560381 0.00443921970504 0.00430024485342 0.00417132585141 0.00405096833097 0.00393793020571 0.00383118578194 0.00372989329273 0.00363336599627 0.00354104671125 
0.00612597006229 0.00583613101028 0.00557443048559 0.00533871041086 0.00512619816708 0.00493400017201 0.00475935805235 0.00459976754867 0.00445302149558 0.00431721265363 0.00419071655023 0.00407216536368 0.00396041872049 0.00385453443059 0.00375374065765 0.00365741022303 0.0035650373348 
0.00602167419211 0.00575856348684 0.00551809209589 0.00529921480523 0.00510008305108 0.00491853658178 0.00475238589657 0.00459956386535 0.00445819898508 0.00432664323474 0.00420347445214 0.00408748496932 0.00397766330448 0.00387317281053 0.0037733295162 0.0036775804495 0.00358548319535 
0.00589480282506 0.00566087271116 0.00544402267928 0.0052441890373 0.00506039408792 0.00489120249536 0.0047350081637 0.00459020561016 0.00445528636919 0.0043288882599 0.00420981568238 0.0040970424555 0.00398970438655 0.00388708605455 0.0037886046271 0.00369379251754 0.00360228006244 
0.00575344181819 0.00554907079476 0.0053566634801 0.00517689974459 0.00500952469027 0.00485374287957 0.00470848746216 0.00457259543954 0.00444491674367 0.004324378346 0.00421001850349 0.0041010014776 0.00399661967047 0.00389628783397 0.00379953250555 0.00370597884436 0.00361533638826 
0.00560447870332 0.00542851453722 0.00526012435595 0.00510046801409 0.00494982471629 0.00480791173649 0.00467411972968 0.0045476779706 0.00442776554989 0.00431358286624 0.00420439477339 0.00409955385648 0.00399850998764 0.00390081059438 0.00380609485707 0.00371408419594 0.00362457079233 
0.00545325681848 0.00530357854266 0.00515790787875 0.00501765017919 0.00488343234654 0.00475534590545 0.00463314079881 0.00451637125829 0.00440450070537 0.00429697393399 0.00419326417752 0.00409290137972 0.00399548668531 0.00390069706437 0.00380828311914 0.00371806245185 0.00362991044381 
0.00530357854266 0.00517756794539 0.0050527919558 0.00493072115188 0.00481217148642 0.0046974805801 0.00458665961234 0.00447951548155 0.00437574405202 0.00427499802724 0.00417693379433 0.00408124147253 0.00398766193753 0.00389599405615 0.00380609485707 0.00371787490536 0.00363129073446 
0.00515790787875 0.0050527919558 0.00494683300865 0.00484144418466 0.00473750949954 0.00463550634498 0.00453561987935 0.00443784117303 0.00434204636933 0.00424805717962 0.00415568454887 0.00406475794758 0.00397514289502 0.00388674923659 0.00379953250555 0.00371349044546 0.00362865647812 
0.00501765017919 0.00493072115188 0.00484144418466 0.00475110171177 0.00466056200607 0.00457036132656 0.00448078746772 0.00439195617058 0.00430387600883 0.00421650014174 0.00412976503975 0.00404361727878 0.00395803003153 0.00387301112966 0.0037886046271 0.00370488771679 0.00362196467309 
0.00488343234654 0.00481217148642 0.00473750949954 0.00466056200607 0.00458212915716 0.00450274919627 0.00442275820741 0.00434234831597 0.00426161952749 0.00418062263733 0.00409939225676 0.00401797010892 0.00393641948137 0.00385483217403 0.0037733295162 0.00369205908195 0.00361118864733 
0.00475534590545 0.0046974805801 0.00463550634498 0.00457036132656 0.00450274919627 0.00443317347586 0.00436197982092 0.00428939980597 0.00421559163972 0.00414067492389 0.00406475794758 0.00398795708452 0.00391040866546 0.00383227426123 0.00375374065765 0.00367501595399 0.00359632320003 
0.00463314079881 0.00458665961234 0.00453561987935 0.00448078746772 0.00442275820741 0.00436197982092 0.0042987819121 0.00423340882346 0.00416605133098 0.00409687434448 0.00402603889648 0.00395371767221 0.00388010413025 0.00380541586825 0.00372989329273 0.00365379486026 0.00357739018787 
0.00451637125829 0.00447951548155 0.00443784117303 0.00439195617058 0.00434234831597 0.00428939980597 0.00423340882346 0.00417461438174 0.00411322096805 0.00404942039679 0.00398340915727 0.00391540038239 0.00384563031043 0.00377435971348 0.00370187119219 0.00362846347317 0.00355444390503 
0.00440450070537 0.00437574405202 0.00434204636933 0.00430387600883 0.00426161952749 0.00421559163972 0.00416605133098 0.00411322096805 0.00405730557351 0.00399850998764 0.00393705232017 0.00387317281053 0.00380713789181 0.00373923982628 0.00366979270114 0.00359912581879 0.00352757558961 
0.00429697393399 0.00427499802724 0.00424805717962 0.00421650014174 0.00418062263733 0.00414067492389 0.00409687434448 0.00404942039679 0.00399850998764 0.00394435091487 0.00388717214858 0.00382723008966 0.00376481058776 0.00370022703014 0.00363381521393 0.00356592595469 0.00349691646219 
0.00419326417752 0.00417693379433 0.00415568454887 0.00412976503975 0.00409939225676 0.00406475794758 0.00402603889648 0.00398340915727 0.00393705232017 0.00388717214858 0.00383400034075 0.00377780068669 0.00371886942375 0.0036575320768 0.0035941374399 0.00352904958432 0.00346263885388 
0.00409290137972 0.00408124147253 0.00406475794758 0.00404361727878 0.00401797010892 0.00398795708452 0.00395371767221 0.00391540038239 0.00387317281053 0.00382723008966 0.00377780068669 0.00372514891446 0.00366957400147 0.00361140599377 0.00355099910215 0.00348872331765 0.00342495519033 
0.00399548668531 0.00398766193753 0.00397514289502 0.00395803003153 0.00393641948137 0.00391040866546 0.00388010413025 0.00384563031043 0.00380713789181 0.00376481058776 0.00371886942375 0.00366957400147 0.00361722062646 0.00356213756807 0.00350467802488 0.0034452115594 0.00338411483174 
0.00390069706437 0.00389599405615 0.00388674923659 0.00387301112966 0.00385483217403 0.00383227426123 0.00380541586825 0.00377435971348 0.00373923982628 0.00370022703014 0.0036575320768 0.00361140599377 0.00356213756807 0.00351004822891 0.00345548486273 0.00339881126484 0.003340398992 
0.00380828311914 0.00380609485707 0.00379953250555 0.0037886046271 0.0037733295162 0.00375374065765 0.00372989329273 0.00370187119219 0.00366979270114 0.00363381521393 0.0035941374399 0.00355099910215 0.00350467802488 0.00345548486273 0.00340375596405 0.00334984501204 0.00329411414165 
0.00371806245185 0.00371787490536 0.00371349044546 0.00370488771679 0.00369205908195 0.00367501595399 0.00365379486026 0.00362846347317 0.00359912581879 0.00356592595469 0.00352904958432 0.00348872331765 0.0034452115594 0.00339881126484 0.00334984501204 0.00329865297308 0.00324558441598 
0.00362991044381 0.00363129073446 0.00362865647812 0.00362196467309 0.00361118864733 0.00359632320003 0.00357739018787 0.00355444390503 0.00352757558961 0.00349691646219 0.00346263885388 0.00342495519033 0.00338411483174 0.003340398992 0.00329411414165 0.00324558441598 0.00319514359443 
0.00511979403925 0.0049386861232 0.00476525419362 0.0046009455232 0.00444633843645 0.0043014320599 0.00416586340997 0.00403906173378 0.00392035380744 0.00380903313129 0.00370440358201 0.00360580550264 0.00351262999132 0.00342432542508 0.003340398992 0.00326041511126 0.00318399200217 
0.005348215697 0.00513764712125 0.00493928994635 0.00475408928619 0.0045820483324 0.00442260451595 0.00427488803469 0.00413789110422 0.00401057398478 0.00389192820351 0.00378101171994 0.00367696618267 0.00357902304469 0.00348650295494 0.00339881126484 0.00331543145078 0.00323591758199 
0.00557905944142 0.00533604861149 0.00511096837775 0.00490389315439 0.00471397374556 0.00453988868678 0.00438012631695 0.00423315192811 0.00409750086645 0.00397182569283 0.00385491574924 0.00374570070671 0.0036432452225 0.00354673900907 0.00345548486273 0.00336888612861 0.0032864344339 
0.00580593482046 0.00552856634773 0.00527594996379 0.00504686482825 0.00483932188423 0.00465105537731 0.00447979673579 0.00432341553694 0.00417998291664 0.00404779155066 0.0039253524653 0.00381138035777 0.00370477397976 0.00360459514717 0.00351004822891 0.00342046101117 0.00333526731094 