# vtk DataFile Version 2.0
level 0 sphere data
ASCII
DATASET STRUCTURED_POINTS
DIMENSIONS 17 33 33
ORIGIN -0.5 -0.5 -0.5
SPACING 0.03125 0.015625 0.015625
POINT_DATA 18513
SCALARS volume_data float 1 
LOOKUP_TABLE default 
0.00442803526232 0.00458127088339 0.00473108423179 0.00487327339826 0.00500290378302 0.00511461206909 0.00520311496736 0.00526387382513 0.00529378408839 0.00529170368638 0.00525865212127 0.00519761205208 0.00511300167241 0.0050099861428 0.00489381399519 0.00476930946768 0.00464056962014 
0.00450485112929 0.00466759405353 0.00482747536221 0.00497993220655 0.00511950656491 0.00524016977711 0.00533590164978 0.00540147516676 0.00543329028454 0.00543002266657 0.00539286988433 0.00532530585612 0.00523243286793 0.00512014870305 0.0049943630037 0.00486041931678 0.00472277171825 
0.00458127088339 0.00475389572835 0.00492433497503 0.00508765520166 0.00523783987129 0.00536812999703 0.00547167866913 0.00554247385107 0.00557634419106 0.00557175419569 0.00553010831911 0.00545544746591 0.00535365455941 0.00523144968832 0.00509546845026 0.00495160865532 0.00480469089499 
0.00465684861211 0.00483966950622 0.00502110124939 0.00519583566322 0.00535726693854 0.00549784191161 0.00560979372915 0.00568622160267 0.00572229983658 0.00571624983251 0.00566971480332 0.00558738558696 0.00547602936358 0.0053432816231 0.00519656762779 0.00504237006698 0.00488588009624 
0.00473108423179 0.00492433497503 0.00511711448988 0.00530374212636 0.00547699840142 0.00562847607841 0.00574939475689 0.00583185662638 0.00587029296208 0.0058626475656 0.00581083683714 0.00572029014791 0.00559876709288 0.00545491203375 0.00529699965112 0.00513212177351 0.00496583769999 
0.00480342562917 0.00500723813178 0.00521161449235 0.00541051112537 0.00559607895221 0.00575900418038 0.00588940310364 0.00597827206392 0.00601920773975 0.00600984026771 0.00595239523886 0.00585313204227 0.00572091140133 0.00556547617413 0.00539600279976 0.00522020802642 0.005044009626 
0.00487327339826 0.00508765520166 0.00530374212636 0.00551514483021 0.00571337925661 0.00588818398996 0.0060284915894 0.00612408886141 0.00616764771328 0.00615644856114 0.00609306218445 0.00598466808366 0.00584133168669 0.00567397464305 0.0054927160761 0.00530590289709 0.00511979403925 
0.00493998859184 0.00516480062708 0.00539254642606 0.00561651556622 0.0058275959465 0.00601455321982 0.00616507179775 0.00626763794319 0.00631391602476 0.00630080298937 0.00623124849715 0.00611343484707 0.00595872306857 0.0057792778838 0.00558618627077 0.0053884182354 0.00519254906692 
0.00500290378302 0.00523783987129 0.00547699840142 0.00571337925661 0.00593726279687 0.00613643655834 0.0062972960249 0.00640695788009 0.00645601139978 0.00644094168271 0.00636510559048 0.00623775569355 0.00607161754917 0.00588013960478 0.0056753817467 0.00546691644152 0.00526160382405 
0.00506133753106 0.00530590742407 0.00555601249565 0.00580439958038 0.00604077609852 0.00625197036898 0.00642307981841 0.00653981507399 0.00659164731584 0.00657463053948 0.00649254799927 0.00635576545687 0.00617840936748 0.00597522091345 0.0057592138677 0.00554052843846 0.00532627284251 
0.00511461206909 0.00536812999703 0.00562847607841 0.00588818398996 0.00613643655834 0.00635914894691 0.00654015065756 0.00666375331021 0.00671830170052 0.00669941277359 0.0066113020501 0.00646545668431 0.00627739687823 0.00606312630752 0.00583656646076 0.00560837683284 0.00538587372096 
0.00516207369343 0.00542365436272 0.00569328656679 0.00596333162203 0.00622250863616 0.006455894566 0.00664612655371 0.00677617774045 0.0068333027264 0.00681269289072 0.00671898444809 0.00656474966414 0.0063668418638 0.00614245155664 0.00590633290457 0.00566960371857 0.00543974747623 
0.00520311496736 0.00547167866913 0.00574939475689 0.0060284915894 0.0062972960249 0.00654015065756 0.0067386248608 0.00687447448078 0.00693395225752 0.00691185627721 0.00681321107031 0.00665158558059 0.00644504498606 0.00621184196273 0.00596745942725 0.00572340195557 0.00548728070916 
0.00523719750415 0.00551148542914 0.00579585184662 0.00608242832442 0.00635922918243 0.00660999349445 0.00681539646537 0.00695616102925 0.00701768220481 0.00699441960623 0.00689173113475 0.00672403817056 0.00651043328709 0.0062700576704 0.00601899209501 0.00576904812387 0.005527928351 
0.00526387382513 0.00554247385107 0.00583185662638 0.00612408886141 0.00640695788009 0.00666375331021 0.00687447448078 0.00701905539946 0.00708223125442 0.0070581999582 0.0069525758712 0.00678043481314 0.00656165270536 0.00631604091627 0.00606012396947 0.00580593482046 0.00556123548668 
0.00528280665723 0.00556418886305 0.00585679863735 0.0061526656107 0.0064394393343 0.00670013190168 0.00691432100764 0.00706144491008 0.00712582192918 0.00710148359677 0.00699420525787 0.0068194741029 0.00659765617624 0.00634897877196 0.00609023823527 0.00583359965281 0.00558685662076 
0.00529378408839 0.00557634419106 0.00587029296208 0.00616764771328 0.00645601139978 0.00671830170052 0.00693395225752 0.00708223125442 0.00714731320223 0.00712317102623 0.0070156331241 0.00684032489582 0.00661777679835 0.00636835447214 0.00610894296452 0.00585174829046 0.00560457080553 
0.00529672925603 0.00557883723183 0.00587220284884 0.00616885476216 0.0064564411099 0.00671797209548 0.00693302297769 0.00708102890309 0.00714630421104 0.00712287538541 0.00701651155979 0.00684269261293 0.00662177635418 0.006373981116 0.00611609372093 0.00586026931722 0.00561429130749 
0.00529170368638 0.00557175419569 0.0058626475656 0.00615644856114 0.00644094168271 0.00669941277359 0.00691185627721 0.0070581999582 0.00712317102623 0.007100957298 0.00699716073457 0.0068268425725 0.00660986230585 0.00636601341473 0.00611180140145 0.00585923936017 0.00561606893132 
0.00527890397536 0.00555536498085 0.0058419945576 0.00613092136889 0.00641015550532 0.00666343035395 0.00687141375967 0.00701481924505 0.00707902982293 0.00705848996581 0.00695853903284 0.00679357662565 0.00658267077981 0.00634493593385 0.0060964243899 0.00584891795782 0.00561008869254 
0.00525865212127 0.00553010831911 0.00581083683714 0.00609306218445 0.00636510559048 0.0066113020501 0.00681321107031 0.0069525758712 0.0070156331241 0.00699716073457 0.00690215861192 0.00674416683073 0.00654121803391 0.00631152938653 0.00607054595154 0.00582973270803 0.00559666015008 
0.00523138039199 0.00549656871896 0.00576995821131 0.00604390540672 0.00630712239163 0.00654467659987 0.00673919276691 0.00687362814615 0.00693521717361 0.00691912602411 0.00682996029045 0.00668025640334 0.00648682729169 0.00626681930957 0.0060349394743 0.00580225622163 0.00557620228171 
0.00519761205208 0.00545544746591 0.00572029014791 0.00598466808366 0.00623775569355 0.00646545668431 0.00665158558059 0.00678043481314 0.00684032489582 0.0068268425725 0.00674416683073 0.00660374216083 0.00642104065876 0.00621201333632 0.00599052535578 0.00576717714168 0.00554922422821 
0.00515793953164 0.00540753032023 0.00566286461484 0.00591668266244 0.00615868209993 0.00637567784939 0.00655274976785 0.0066755859662 0.00673362921952 0.00672289836592 0.00664713431319 0.00651665347215 0.00634552664031 0.00614843397642 0.00593832387095 0.00572526786812 0.00551630348832 
0.00511300167241 0.00535365455941 0.00559876709288 0.00584133168669 0.00607161754917 0.00627739687823 0.00644504498606 0.00656165270536 0.00661777679835 0.00660986230585 0.00654121803391 0.00642104065876 0.00626199268937 0.00607745334708 0.0058794082196 0.00567735163525 0.00547806320002 
0.00506346155511 0.00529467769854 0.00552909328408 0.00575998955144 0.00597824188998 0.00617259867875 0.00633072155994 0.00644106762415 0.00649526465346 0.00649016470724 0.00642866379138 0.00631888191034 0.00617210981627 0.00600043496587 0.00581486127529 0.0056242712748 0.0054351500126 
0.0050099861428 0.00523144968832 0.00545491203375 0.00567397464305 0.00588013960478 0.00606312630752 0.00621184196273 0.00631604091627 0.00636835447214 0.00636601341473 0.00631152938653 0.00621201333632 0.00607745334708 0.00591868593199 0.00574573855385 0.00556686146463 0.00538821378423 
0.0049532286268 0.0051647897583 0.00537723588195 0.0055845133738 0.00577875797063 0.00595063478428 0.00609023221608 0.00618851091078 0.00623902300124 0.00623934434669 0.00619163604077 0.00610208280791 0.00597946112149 0.00583342100604 0.00567303881727 0.00550592563075 0.00533788999221 
0.00489381399519 0.00509546845026 0.00529699965112 0.0054927160761 0.0056753817467 0.00583656646076 0.00596745942725 0.00606012396947 0.00610894296452 0.00611180140145 0.00607054595154 0.00599052535578 0.0058794082196 0.00574573855385 0.00559768272025 0.00544221804781 0.0052847853758 
0.0048323280056 0.00502419485371 0.00521504667944 0.00539956361095 0.00557112205491 0.00572214404952 0.00584482991027 0.00593223689389 0.00597948715685 0.00598473887371 0.00594956043312 0.00587855622973 0.00577839588534 0.00565660720948 0.00552049910922 0.00537643115033 0.00522946699379 
0.00476930946768 0.00495160865532 0.00513212177351 0.00530590289709 0.00546691644152 0.00560837683284 0.00572340195557 0.00580593482046 0.00585174829046 0.00585923936017 0.00582973270803 0.00576717714168 0.00567735163525 0.00556686146463 0.00544221804781 0.00530918766667 0.00517245460222 
0.00470524553983 0.00487827635743 0.00504886966792 0.00521244932128 0.00536353701273 0.00549607575437 0.00560400784539 0.00568205841703 0.00572656812325 0.00573614096785 0.0057118899467 0.00565719139502 0.00557703744586 0.00547720414513 0.00536346935669 0.00524103693102 0.00511421605658 
0.00464056962014 0.00480469089499 0.00496583769999 0.00511979403925 0.00526160382405 0.00538587372096 0.00548728070916 0.00556123548668 0.00560457080553 0.00561606893132 0.00559666015008 0.00554922422821 0.00547806320002 0.00538821378423 0.0052847853758 0.00517245460222 0.00505516531841 
0.00450485112929 0.00466759405353 0.00482747536221 0.00497993220655 0.00511950656491 0.00524016977711 0.00533590164978 0.00540147516676 0.00543329028454 0.00543002266657 0.00539286988433 0.00532530585612 0.00523243286793 0.00512014870305 0.0049943630037 0.00486041931678 0.00472277171825 
0.00458633411952 0.00475966289867 0.00493085862094 0.00509496113661 0.00524591271928 0.00537689966321 0.0054810123745 0.00555217877397 0.00558618358512 0.00558147510972 0.00553947392706 0.00546426478159 0.00536179054686 0.00523883389684 0.00510208504618 0.00495748289388 0.00480987466351 
0.00466759405353 0.0048519789298 0.00503510776253 0.00521161449235 0.0053747998513 0.00551698240016 0.00563024465984 0.00570753886964 0.00574393046315 0.0057376004329 0.00569023224194 0.00560662542615 0.00549369394469 0.00535922370297 0.00521076802066 0.00505490283045 0.00489687696408 
0.0047481544738 0.00494400278502 0.00513962879318 0.00532925909827 0.00550551644833 0.00565976935487 0.00578296713012 0.00586694305427 0.0059059265718 0.00589778608794 0.00584451316451 0.00575173874069 0.00562749101764 0.00548068430787 0.00531981719255 0.00515213892236 0.00498330121827 
0.00482747536221 0.00503510776253 0.00524371166517 0.00544711341187 0.00563722935129 0.00580439958038 0.00593831165345 0.00602952661769 0.00607130993264 0.00606116716353 0.0060014481693 0.005898743205 0.00576234786543 0.00560243326801 0.00542852145803 0.00524856325977 0.0050686060505 
0.00490495456509 0.00512457865999 0.0053465246491 0.00556423519213 0.00576890261962 0.00594976869506 0.0060951327687 0.00619412513402 0.00623891103268 0.00622657897841 0.00615989129236 0.00604653369876 0.00589722758312 0.00572352715949 0.0055360476917 0.0053434590365 0.00515218750144 
0.00497993220655 0.00521161449235 0.00544711341187 0.0056795143946 0.00589928157667 0.00609450221618 0.00625197036898 0.00635922918243 0.00640720458255 0.00639251180074 0.006318381811 0.00619373482716 0.00603087429301 0.00584285445348 0.00564143979862 0.00543602323619 0.00523338340478 
0.00505169866583 0.00529533613746 0.00554440655327 0.00579167398126 0.00602688581204 0.00623693820129 0.00640702137086 0.00652294746855 0.00657426939165 0.00655707396837 0.00647511590931 0.0063386835542 0.0061618061328 0.00595913630506 0.00574362422342 0.0055253742446 0.0053114813262 
0.00511950656491 0.0053747998513 0.00563722935129 0.00589928157667 0.00615001559001 0.00637512531677 0.00655812800565 0.00668298703239 0.00673776541861 0.00671797209548 0.0066279349652 0.00647942726173 0.00628832164787 0.00607093818628 0.00584142366595 0.00561056532963 0.00538573051107 
0.0051825869828 0.00544901731546 0.00572432719693 0.00600077477445 0.0062667763371 0.00650684325828 0.00670279188152 0.00683666133832 0.00689493940022 0.00687251916034 0.00677433960638 0.00661374415799 0.00640852425983 0.00617669516668 0.00593358048405 0.00569060465153 0.0054553580572 
0.00524016977711 0.00551698240016 0.00580439958038 0.00609450221618 0.00637512531677 0.00662965225634 0.00683822335039 0.00698093797873 0.00704267162794 0.00701768220481 0.00691153906778 0.00673919276691 0.00652036891797 0.00627475296257 0.00601879064479 0.00576448198673 0.00551958919347 
0.00529150746683 0.00557770414859 0.0058761444811 0.0061787811861 0.00647294291765 0.0067409766105 0.0069614340618 0.00711253632565 0.00717757517042 0.00715017997884 0.00703654373076 0.00685319544014 0.0066217333589 0.00636342549788 0.00609574807682 0.00583120167118 0.00557767111881 
0.00533590164978 0.00563024465984 0.00593831165345 0.00625197036898 0.00655812800565 0.00683822335039 0.00706937607206 0.00722808058 0.0072961538478 0.0072666359786 0.00714630421104 0.00695315698909 0.00671051342396 0.00644106762415 0.0061631979158 0.00588982044128 0.00562889937565 
0.0053727304572 0.00567375967157 0.00598976173645 0.00631255378595 0.00662871266867 0.00691893121875 0.00715912322735 0.00732430474073 0.00739501586852 0.00736378340012 0.00723789271391 0.00703661363187 0.00678473776419 0.00650615901511 0.00621999557257 0.00593948797424 0.00567264526105 
0.00540147516676 0.00570753886964 0.00602952661769 0.00635922918243 0.00668298703239 0.00698093797873 0.00722808058 0.00739829383957 0.00747112700788 0.00743870635486 0.00730871241686 0.00710140025957 0.00684269261293 0.00655739251215 0.00626516705566 0.00597948715685 0.00570838239819 
0.00542174388954 0.00573104245799 0.00605686539332 0.00639099193603 0.00671962073238 0.00702254722072 0.00727419756034 0.00744773302684 0.0075220733624 0.0074890889347 0.00735671060598 0.00714581720089 0.00688304321509 0.00659375799138 0.00629796489242 0.00600927061725 0.00573571038485 
0.00543329028454 0.00574393046315 0.00607130993264 0.00640720458255 0.00673776541861 0.00704267162794 0.0072961538478 0.00747112700788 0.00754629368071 0.00751343462894 0.00738056451438 0.00716877344973 0.00690493629385 0.00661461185389 0.0063179136597 0.00602848999623 0.00575437347421 
0.00543602556943 0.0057460817166 0.00607269470463 0.00640764285485 0.00673712345223 0.0070409301109 0.00729348664708 0.00746795132228 0.00754323991855 0.00751121758945 0.00737980857441 0.00716988377168 0.00690806871926 0.00661972303754 0.00632483978405 0.0060370149029 0.00576427255762 
0.00543002266657 0.0057376004329 0.00606116716353 0.00639251180074 0.00671797209548 0.00701768220481 0.0072666359786 0.00743870635486 0.00751343462894 0.00748293663522 0.00735487969729 0.00714950308801 0.00689271168339 0.00660928911916 0.00631888191034 0.0060349394743 0.00576546929003 
0.00541551207589 0.00571880964578 0.00603717736909 0.00636242965742 0.00668113929449 0.00697399361948 0.00721689930784 0.00738486322196 0.00745841345945 0.0074300611417 0.00730707190648 0.00710869202857 0.0068596864835 0.00658392018608 0.00630048051569 0.00602257580195 0.00575818195058 
0.00539286988433 0.00569023224194 0.0060014481693 0.006318381811 0.0066279349652 0.00691153906778 0.00714630421104 0.00730871241686 0.00738056451438 0.00735487969729 0.00723840902102 0.00704911977839 0.00681029582263 0.00654459280513 0.00627034809678 0.00600043496587 0.00574277344851 
0.00536259907322 0.00565256167623 0.00595492965136 0.00626165127953 0.00656004848899 0.0068324589898 0.00705742248339 0.00721314434464 0.00728289599124 0.00726028065486 0.00715145879087 0.00697292083143 0.00674622133136 0.00649258052604 0.00622942363536 0.00596919775961 0.00571973263672 
0.00532530585612 0.00560662542615 0.005898743205 0.00619373482716 0.00647942726173 0.00673919276691 0.00695315698909 0.00710140025957 0.00716877344973 0.00714950308801 0.00704911977839 0.00688252824032 0.00666940215053 0.00642937002452 0.00617881668521 0.00592967816384 0.00568965066537 
0.00528167309337 0.00555334471132 0.00583412119008 0.00611625461133 0.00638815191892 0.0066343114641 0.00683653230501 0.00697683109894 0.0070416667048 0.00702589564287 0.00693441203311 0.00678050639594 0.00658191019397 0.00635657278411 0.00611974707095 0.00588278309403 0.00565319442222 
0.00523243286793 0.00549369394469 0.00576234786543 0.00603087429301 0.00628832164787 0.00652036891797 0.00671051342396 0.00684269261293 0.00690493629385 0.00689271168339 0.00681029582263 0.00666940215053 0.00648583549898 0.00627584124517 0.0060534858546 0.00582947188816 0.00561107914426 
0.00517834010083 0.00542866288706 0.00568470614751 0.00593922633266 0.00618195890247 0.00639978315871 0.00657786674554 0.00670199242863 0.00676167562108 0.00675295636755 0.00667953264678 0.00655162627181 0.00638319097919 0.00618879614235 0.00598130213785 0.00577071850631 0.00556404207929 
0.00512014870305 0.00535922370297 0.00560243326801 0.00584285445348 0.00607093818628 0.00627475296257 0.00644106762415 0.00655739251215 0.00661461185389 0.00660928911916 0.00654459280513 0.00642937002452 0.00627584124517 0.00609696901222 0.00590441876919 0.00570747863997 0.00551281869467 
0.00505859128999 0.00528630423941 0.0055166868371 0.00574317262178 0.00595693944882 0.00614720843034 0.00630225109839 0.00641116157056 0.00646605925665 0.00646397603778 0.00640760614368 0.00630455577668 0.00616545603893 0.00600176122122 0.00582397846262 0.00564066305301 0.00545812245948 
0.0049943630037 0.00521076802066 0.00542852145803 0.00564143979862 0.00584142366595 0.00601879064479 0.0061631979158 0.00626516705566 0.0063179136597 0.00631888191034 0.00627034809678 0.00617881668521 0.0060534858546 0.00590441876919 0.00574102047475 0.00557111764785 0.00540062874603 
0.00492810956189 0.00513340077504 0.0053388750303 0.0055387483393 0.00572562649476 0.00589085367261 0.00602534631834 0.00612089503786 0.00617167549481 0.00617549009349 0.0061342514911 0.00605349872867 0.00594115563728 0.00580602074637 0.0056564669778 0.00549961007345 0.00534096296979 
0.00486041931678 0.00505490283045 0.00524856325977 0.00543602323619 0.00561056532963 0.00576448198673 0.00588982044128 0.00597948715685 0.00602848999623 0.0060349394743 0.00600043496587 0.00592967816384 0.00582947188816 0.00570747863997 0.00557111764785 0.00542682221195 0.00527969275124 
0.00479181887724 0.00497588643658 0.00515828062554 0.00533402927332 0.00549705531101 0.00564051719071 0.00575746769109 0.00584178596599 0.00588919551223 0.00589806982643 0.00586974037554 0.00580818828951 0.00571923872807 0.00560954355973 0.00548565071835 0.00535334760234 0.00521732365292 
0.00472277171825 0.00489687696408 0.0050686060505 0.00523338340478 0.00538573051107 0.00551958919347 0.00562889937565 0.00570838239819 0.00575437347421 0.00576546929003 0.00574277344851 0.00568965066537 0.00561107914426 0.00551281869467 0.00540062874603 0.00527969275124 0.00515429791562 
0.00458127088339 0.00475389572835 0.00492433497503 0.00508765520166 0.00523783987129 0.00536812999703 0.00547167866913 0.00554247385107 0.00557634419106 0.00557175419569 0.00553010831911 0.00545544746591 0.00535365455941 0.00523144968832 0.00509546845026 0.00495160865532 0.00480469089499 
0.00466759405353 0.0048519789298 0.00503510776253 0.00521161449235 0.0053747998513 0.00551698240016 0.00563024465984 0.00570753886964 0.00574393046315 0.0057376004329 0.00569023224194 0.00560662542615 0.00549369394469 0.00535922370297 0.00521076802066 0.00505490283045 0.00489687696408 
0.00475389572835 0.00495062385046 0.00514721551123 0.00533786610638 0.00551514483021 0.00567034362908 0.0057943191351 0.00587881212642 0.00591798247018 0.0059096725528 0.00585589987756 0.00576236487376 0.00563718814345 0.00548937656646 0.00532750517124 0.00515887664586 0.00498917380565 
0.00483966950622 0.00504926021723 0.00526003704383 0.00546576060358 0.00565822674453 0.0058275959465 0.00596333162203 0.00605576601077 0.00609798983228 0.00608744281329 0.00602654050316 0.00592204772227 0.00578348866063 0.005621258335 0.00544505815262 0.00526295918741 0.0050810743051 
0.00492433497503 0.00514721551123 0.00537281478891 0.00559447390398 0.0058031840543 0.0059878732748 0.00613643655834 0.00623758150884 0.00628314534953 0.00627009201396 0.00620130819712 0.00608480738153 0.00593173330727 0.00575404415284 0.00556266849482 0.0053664769158 0.00517199690819 
0.00500723813178 0.00524371166517 0.00548464513971 0.00572298817225 0.00594891020102 0.00615001559001 0.00631245443273 0.00642307981841 0.00647227314856 0.0064564411099 0.00637902297617 0.00624948314474 0.00608081464587 0.00588671511764 0.00567943133997 0.00546865033157 0.00526128600261 
0.00508765520166 0.00533786610638 0.00559447390398 0.00585007794939 0.00609402647621 0.00631252575928 0.00648981270371 0.00661065138863 0.00666375331021 0.00664488025139 0.00655811171243 0.0064145770199 0.0062293528466 0.00601804439229 0.00579429086482 0.00556859498398 0.005348215697 
0.00516480062708 0.00542869854357 0.00570109917074 0.00597430507098 0.00623686419628 0.00647353496025 0.00666649351949 0.00679818986187 0.00685545058151 0.0068333027264 0.00673655585253 0.00657821914371 0.00637567784939 0.00614659210198 0.00590604311826 0.00566532822145 0.00543199776786 
0.00523783987129 0.00551514483021 0.0058031840543 0.00609402647621 0.00637546237211 0.00663078509648 0.00683999857825 0.00698304251138 0.00704465919129 0.00701905539946 0.00691185627721 0.0067381501906 0.00651782701879 0.00627071311956 0.00601334873348 0.00575778301616 0.00551179441875 
0.00530590742407 0.00559607895221 0.00589928157667 0.0062074191411 0.00650758789579 0.00678163856859 0.00700734473231 0.00716199313055 0.00722808058 0.00719892160129 0.00708102890309 0.00689173113475 0.00665356531251 0.00638858197143 0.00611475777519 0.00584482991027 0.00558673623937 
0.00536812999703 0.00567034362908 0.0059878732748 0.00631252575928 0.00663078509648 0.00692312654167 0.00716510605476 0.0073312966729 0.00740185470222 0.00736915576695 0.00724064674252 0.00703599150259 0.00678043481314 0.00649823848583 0.00620874830768 0.00592530757266 0.00565594535229 
0.00542365436272 0.0057367891698 0.00606742187378 0.00640732316421 0.00674245972873 0.0070520453714 0.00730951743196 0.00748678523321 0.00756166627652 0.00752558941062 0.00738694348178 0.00716772577535 0.0068958386843 0.00659765617624 0.00629377902446 0.00599806160769 0.00571856320175 
0.00547167866913 0.0057943191351 0.00613643655834 0.00648981270371 0.00683999857825 0.00716510605476 0.00743664949732 0.00762405970489 0.00770294217663 0.00766382277003 0.00751598838964 0.00728364280456 0.00699716073457 0.00668483257038 0.00636835447214 0.00606199016816 0.00577378181702 
0.00551148542914 0.00584194015343 0.00619354717896 0.00655812800565 0.00692091988957 0.00725913297977 0.00754265366276 0.0077387686771 0.0078211427873 0.00777950368265 0.00762393131131 0.00738056451438 0.00708191579384 0.00675789692435 0.0064310992059 0.00611609372093 0.00582087675079 
0.00554247385107 0.00587881212642 0.00623758150884 0.00661065138863 0.00698304251138 0.0073312966729 0.00762405970489 0.00782695602538 0.00791212856621 0.00786867514766 0.00770730020569 0.0074556585911 0.00714791880042 0.00681522657846 0.00648083499488 0.00615952520282 0.00585923936017 
0.00556418886305 0.00590429429597 0.00626763794319 0.00664612655371 0.0070246546983 0.00737935323315 0.00767809020166 0.00788543512596 0.00797255736448 0.00792814950721 0.00776331552715 0.00750667785491 0.0071934535428 0.0068555595946 0.00651665347215 0.00619163604077 0.00588840578461 
0.00557634419106 0.00591798247018 0.00628314534953 0.00666375331021 0.00704465919129 0.00740185470222 0.00770294217663 0.00791212856621 0.00800024685859 0.00795584812472 0.00779017181749 0.00753217057223 0.00721741768578 0.00687808943377 0.00653797594128 0.00621201333632 0.00590807998245 
0.00557883723183 0.00591973327005 0.00628390253095 0.00666325089693 0.00704267162794 0.00739829383957 0.00769798338514 0.0079063069802 0.00799443016388 0.0079510401964 0.00778723395321 0.00753162518775 0.00721942114001 0.00688252824032 0.00654459280513 0.00622050407837 0.00591814856887 
0.00557175419569 0.0059096725528 0.00627009201396 0.00664488025139 0.00701905539946 0.00736915576695 0.00766382277003 0.00786867514766 0.00795584812472 0.0079144288399 0.00775510758386 0.00750552194857 0.00719982089794 0.00686912908982 0.00653667733127 0.00621722354227 0.00591868593199 
0.00555536498085 0.00588818699877 0.00624226625844 0.00660942171786 0.00697488673978 0.0073158662279 0.00760223986233 0.00780128571113 0.00788665682305 0.00784806481714 0.0076955685407 0.00745528116974 0.00715968612437 0.00683866369311 0.00651477185305 0.0062025468633 0.00590994908981 
0.00553010831911 0.00585589987756 0.00620130819712 0.00655811171243 0.00691185627721 0.00724064674252 0.00751598838964 0.00770730020569 0.00779017181749 0.00775510758386 0.00761136647534 0.00738311841861 0.00710069973016 0.00679235907438 0.00647974831366 0.00617708480079 0.0058923628286 
0.00549656871896 0.00581363383976 0.00614837139681 0.00649254799927 0.00683212394305 0.00714630421104 0.00740851459028 0.00759064929515 0.00767050565235 0.00763948555393 0.00750594321824 0.00729183416411 0.0070250133187 0.00673180287423 0.00643274844433 0.00614164653905 0.00586649664944 
0.00545544746591 0.00576236487376 0.00608480738153 0.0064145770199 0.0067381501906 0.00703599150259 0.00728364280456 0.0074556585911 0.00753217057223 0.00750552194857 0.00738311841861 0.00718457441817 0.00693507845123 0.00665883071546 0.00637511111453 0.00609719366373 0.00583303578274 
0.00540753032023 0.00570317213046 0.00601208840897 0.0063261775218 0.00663252689942 0.00691297477366 0.00714527797454 0.00730670116594 0.0073797120703 0.00735758733577 0.00724679208874 0.00706459810515 0.00683347759979 0.00657540987383 0.0063082951436 0.00604479001602 0.005792748911 
0.00535365455941 0.00563718814345 0.00593173330727 0.0062293528466 0.00651782701879 0.00678043481314 0.00699716073457 0.00714791880042 0.00721741768578 0.00719982089794 0.00710069973016 0.00693507845123 0.00672277383719 0.00648353161102 0.00623380517901 0.00598555195114 0.00574645524744 
0.00529467769854 0.00556555320747 0.00584524225322 0.006126040619 0.00639648504501 0.0066413177 0.00684269261293 0.0069830304833 0.00704911977839 0.00703593894498 0.00694823756129 0.00679895367821 0.006605391357 0.00638512090928 0.00615312652149 0.00592060276405 0.00569499330364 
0.00523144968832 0.00548937656646 0.00575404415284 0.00601804439229 0.00627071311956 0.00649823848583 0.00668483257038 0.00681522657846 0.00687808943377 0.00686912908982 0.00679235907438 0.00665883071546 0.00648353161102 0.00628196816405 0.00606767255794 0.00585103393352 0.00563919314655 
0.0051647897583 0.00540970585795 0.00565945808925 0.00590698803541 0.00614245155664 0.0063534330281 0.00652605505007 0.00664713431319 0.00670700529465 0.00670201574232 0.00663553309971 0.00651693705897 0.00635912387506 0.0061756836203 0.00597874626766 0.00577787463204 0.00557985331288 
0.00509546845026 0.00532750517124 0.00556266849482 0.00579429086482 0.00601334873348 0.00620874830768 0.00636835447214 0.00648083499488 0.00653797594128 0.00653667733127 0.00647974831366 0.00637511111453 0.00623380517901 0.00606767255794 0.00588751546001 0.0057020698595 0.00551772292636 
0.00502419485371 0.00524364122924 0.00546471245982 0.00568115989647 0.00588476349002 0.00606566009013 0.00621328045567 0.0063179136597 0.00637259516584 0.00637469595937 0.00632654847636 0.00623481988756 0.0061089227503 0.00595912760314 0.00579500015694 0.00562446671158 0.00545348903052 
0.00495160865532 0.00515887664586 0.0053664769158 0.00556859498398 0.00575778301616 0.00592530757266 0.00606199016816 0.00615952520282 0.00621201333632 0.00621722354227 0.00617708480079 0.00609719366373 0.00598555195114 0.00585103393352 0.0057020698595 0.00554580773495 0.00538776874913 
0.00487827635743 0.00507386892533 0.0052687032333 0.00545740273927 0.0056332500394 0.00578853660561 0.00591530746742 0.00600646540173 0.00605701283632 0.00606505284335 0.00603217511928 0.0059630692703 0.00586452352333 0.00574418327417 0.00560944823891 0.00546673003662 0.00532110562965 
0.00480469089499 0.00498917380565 0.00517199690819 0.005348215697 0.00551179441875 0.00565594535229 0.00577378181702 0.00585923936017 0.00590807998245 0.00591868593199 0.0058923628286 0.00583303578274 0.00574645524744 0.00563919314655 0.00551772292636 0.00538776874913 0.00525396939887 
0.00465684861211 0.00483966950622 0.00502110124939 0.00519583566322 0.00535726693854 0.00549784191161 0.00560979372915 0.00568622160267 0.00572229983658 0.00571624983251 0.00566971480332 0.00558738558696 0.00547602936358 0.0053432816231 0.00519656762779 0.00504237006698 0.00488588009624 
0.0047481544738 0.00494400278502 0.00513962879318 0.00532925909827 0.00550551644833 0.00565976935487 0.00578296713012 0.00586694305427 0.0059059265718 0.00589778608794 0.00584451316451 0.00575173874069 0.00562749101764 0.00548068430787 0.00531981719255 0.00515213892236 0.00498330121827 
0.00483966950622 0.00504926021723 0.00526003704383 0.00546576060358 0.00565822674453 0.0058275959465 0.00596333162203 0.00605576601077 0.00609798983228 0.00608744281329 0.00602654050316 0.00592204772227 0.00578348866063 0.005621258335 0.00544505815262 0.00526295918741 0.0050810743051 
0.00493085862094 0.00515484384182 0.00538168481252 0.0056046886834 0.00581477842714 0.00600077477445 0.00615043361122 0.00625231651037 0.00629814704724 0.006284845931 0.00621534301409 0.00609776534107 0.00594340257107 0.00576435185742 0.00557164894101 0.00537423249282 0.00517866382376 